# vtk DataFile Version 2.0
Written using VisIt writer
ASCII
DATASET UNSTRUCTURED_GRID
POINTS 27 float
0 0 0
2 0 0
2 2 0
0 2 0
0 0 2
2 0 2
2 2 2
0 2 2
1 0 0
2 1 0
1 2 0
0 1 0
1 0 2
2 1 2
1 2 2
0 1 2
0 0 1
2 0 1
2 2 1
0 2 1
1 0 1
2 1 1
1 2 1
0 1 1
1 1 0
1 1 2
1 1 1
CELLS 1 28
27  0 1 2 3 4 5 6 7 8 9 10 11 12 13 14 15 16 17 18 19 20 21 22 23 24 25 26  
CELL_TYPES 1
29
CELL_DATA 1
SCALARS Materials int 1
LOOKUP_TABLE default
1
